      28
 i =       60, E =      -197.3027105438
  C         3.3716260731       -0.2911809773        7.4071214937
  C         4.4703175750        6.5841432274        3.0750910915
  C         1.8562688690        2.8552706267        5.5890816857
  C         0.7576987666        3.4375075728        1.2571992019
  H         2.4675088338        0.1954623564        7.8543398441
  H         3.1559365405       -0.5152395643        6.3465151958
  H         3.6519332250       -1.1776741769        7.9954582477
  H         5.3743541356        6.0973703885        3.5223229974
  H         4.6861719815        6.8081753408        2.0145524331
  H         4.1901038985        7.4705540016        3.6637129292
  H         2.7603164652        3.3419443574        5.1417621010
  H         2.0721206909        2.6314388590        6.6496615449
  H         1.5760274973        1.9687261589        5.0007093812
  H        -0.1463797849        2.9509957079        0.8097761969
  H         0.5418834086        3.6613425948        2.3177957822
  H         1.0380167773        4.3240782268        0.6688856234
  O         5.2448196119        0.6528773182        8.4291997584
  O         4.4911691557        1.5666873120        6.5889646027
  O         2.5971651491        5.6399483880        4.0971933084
  O         3.3508013567        4.7262339264        2.2569279162
  O        -0.0168479388        3.7993555300        4.5668094107
  O         0.7367013082        4.7132289072        6.4070439867
  O         2.6308283922        2.4936114460        0.2347969461
  O         1.8772523412        1.5794682037        2.0749138267
  N         4.4504297396        0.6922569551        7.4685262926
  N         3.3915449451        5.6006387585        3.1365121897
  N         0.7774830573        3.8387483268        5.5275320705
  N         1.8364838932        2.4540444394        1.1954997289
